REMARK  Name = caffeine
REMARK  3 active torsions:
REMARK  status: ('A' for Active; 'I' for Inactive)
REMARK    1  A    between atoms: C_1  and  N_2
REMARK    2  A    between atoms: N_9  and  C_10
REMARK    3  A    between atoms: N_11  and  C_12
REMARK                            x       y       z     vdW  Elec       q    Type
REMARK                         _______ _______ _______ _____ _____    ______ ____
ROOT
ATOM      1  C   UNL     1       2.229  -2.161   0.022  0.00  0.00    +0.000 C 
ATOM      2  N   UNL     1       1.279  -1.066   0.009  0.00  0.00    +0.000 N 
ATOM      3  C   UNL     1      -0.084  -1.378   0.006  0.00  0.00    +0.000 A 
ATOM      4  O   UNL     1      -0.535  -2.519   0.009  0.00  0.00    +0.000 OA
ATOM      5  C   UNL     1      -0.913  -0.224  -0.001  0.00  0.00    +0.000 A 
ATOM      6  C   UNL     1      -0.427   1.048  -0.004  0.00  0.00    +0.000 A 
ATOM      7  N   UNL     1      -1.427   1.973  -0.011  0.00  0.00    +0.000 NA
ATOM      8  C   UNL     1      -2.536   1.260  -0.009  0.00  0.00    +0.000 A 
ATOM      9  N   UNL     1      -2.271  -0.084   0.003  0.00  0.00    +0.000 N 
ATOM     10  C   UNL     1      -3.247  -1.144   0.033  0.00  0.00    +0.000 C 
ATOM     11  N   UNL     1       0.922   1.303   0.003  0.00  0.00    +0.000 N 
ATOM     12  C   UNL     1       1.442   2.656   0.011  0.00  0.00    +0.000 C 
ATOM     13  C   UNL     1       1.821   0.235   0.005  0.00  0.00    +0.000 A 
ATOM     14  O   UNL     1       3.043   0.420   0.004  0.00  0.00    +0.000 OA
ENDROOT
TORSDOF 0
