MODEL 1
REMARK VINA RESULT:   -12.790      0.000      0.000
REMARK INTER + INTRA:         -14.408
REMARK INTER:                 -14.285
REMARK INTRA:                  -0.123
REMARK UNBOUND:                -0.123
REMARK  Name = /workspace/projects/05_validated_docking/results/example/workdir/ligand_xtal.pdb
REMARK  5 active torsions:
REMARK  status: ('A' for Active; 'I' for Inactive)
REMARK    1  A    between atoms: C_4  and  N_34
REMARK    2  A    between atoms: C_5  and  O_32
REMARK    3  A    between atoms: C_6  and  C_7
REMARK    4  A    between atoms: O_32  and  C_33
REMARK    5  A    between atoms: N_34  and  C_35
REMARK                            x       y       z     vdW  Elec       q    Type
REMARK                         _______ _______ _______ _____ _____    ______ ____
ROOT
ATOM      1  O   UNL     1      -0.272  24.689   8.764  0.00  0.00    +0.000 OA
ATOM      2  C   UNL     1       1.112  24.746   8.455  0.00  0.00    +0.000 C 
ATOM      3  C   UNL     1       1.989  24.220   9.620  0.00  0.00    +0.000 C 
ATOM      4  C   UNL     1       1.099  23.864  10.814  0.00  0.00    +0.000 C 
ATOM      5  C   UNL     1       0.211  25.087  11.180  0.00  0.00    +0.000 C 
ATOM      6  C   UNL     1      -0.786  25.208   9.978  0.00  0.00    +0.000 C 
ATOM      7  C   UNL     1      -1.977  24.323  10.299  0.00  0.00    +0.000 C 
ATOM      8  N   UNL     1      -1.231  26.611   9.754  0.00  0.00    +0.000 N 
ATOM      9  C   UNL     1      -0.476  27.433   8.878  0.00  0.00    +0.000 A 
ATOM     10  C   UNL     1       0.626  27.218   8.154  0.00  0.00    +0.000 A 
ATOM     11  C   UNL     1       1.230  28.237   7.355  0.00  0.00    +0.000 A 
ATOM     12  C   UNL     1       0.519  29.527   7.379  0.00  0.00    +0.000 A 
ATOM     13  C   UNL     1      -0.560  29.730   8.089  0.00  0.00    +0.000 A 
ATOM     14  C   UNL     1      -1.135  28.723   8.898  0.00  0.00    +0.000 A 
ATOM     15  C   UNL     1      -2.260  28.634   9.748  0.00  0.00    +0.000 A 
ATOM     16  C   UNL     1      -2.318  27.315  10.292  0.00  0.00    +0.000 A 
ATOM     17  C   UNL     1      -3.311  26.977  11.160  0.00  0.00    +0.000 A 
ATOM     18  C   UNL     1      -4.261  27.892  11.506  0.00  0.00    +0.000 A 
ATOM     19  C   UNL     1      -4.228  29.222  10.990  0.00  0.00    +0.000 A 
ATOM     20  C   UNL     1      -3.211  29.552  10.126  0.00  0.00    +0.000 A 
ATOM     21  C   UNL     1      -1.044  31.184   7.935  0.00  0.00    +0.000 C 
ATOM     22  N   UNL     1      -0.024  31.656   7.022  0.00  0.00    +0.000 NA
ATOM     23  C   UNL     1       0.921  30.778   6.659  0.00  0.00    +0.000 C 
ATOM     24  O   UNL     1       1.866  30.958   5.916  0.00  0.00    +0.000 OA
ATOM     25  C   UNL     1       2.394  27.715   6.759  0.00  0.00    +0.000 A 
ATOM     26  C   UNL     1       2.501  26.364   7.197  0.00  0.00    +0.000 A 
ATOM     27  C   UNL     1       3.514  25.507   6.761  0.00  0.00    +0.000 A 
ATOM     28  C   UNL     1       4.451  26.025   5.896  0.00  0.00    +0.000 A 
ATOM     29  C   UNL     1       4.363  27.369   5.464  0.00  0.00    +0.000 A 
ATOM     30  C   UNL     1       3.345  28.177   5.877  0.00  0.00    +0.000 A 
ATOM     31  N   UNL     1       1.480  26.096   8.041  0.00  0.00    +0.000 N 
ENDROOT
BRANCH   4  32
ATOM     32  N   UNL     1       2.020  23.461  12.020  0.00  0.00    +0.000 N 
ATOM     33  C   UNL     1       1.454  22.280  12.732  0.00  0.00    +0.000 C 
ATOM     34  H   UNL     1       2.086  24.244  12.670  0.00  0.00    +0.000 HD
ATOM     35  H   UNL     1       2.946  23.221  11.666  0.00  0.00    +0.000 HD
ENDBRANCH   4  32
BRANCH   5  36
ATOM     36  O   UNL     1       1.089  26.230  11.199  0.00  0.00    +0.000 OA
ATOM     37  C   UNL     1       0.748  27.134  12.231  0.00  0.00    +0.000 C 
ENDBRANCH   5  36
TORSDOF 2
ENDMDL
