MODEL 1
REMARK VINA RESULT:    -4.968      0.000      0.000
REMARK INTER + INTRA:          -4.968
REMARK INTER:                  -4.968
REMARK INTRA:                   0.000
REMARK UNBOUND:                 0.000
REMARK  Name = benzene
REMARK  0 active torsions:
REMARK  status: ('A' for Active; 'I' for Inactive)
REMARK                            x       y       z     vdW  Elec       q    Type
REMARK                         _______ _______ _______ _____ _____    ______ ____
ROOT
ATOM      1  C   UNL     1      -1.848  31.562  10.097  0.00  0.00    +0.000 A 
ATOM      2  C   UNL     1      -1.358  31.187   8.846  0.00  0.00    +0.000 A 
ATOM      3  C   UNL     1      -1.877  30.063   8.202  0.00  0.00    +0.000 A 
ATOM      4  C   UNL     1      -2.882  29.312   8.812  0.00  0.00    +0.000 A 
ATOM      5  C   UNL     1      -3.371  29.686  10.064  0.00  0.00    +0.000 A 
ATOM      6  C   UNL     1      -2.856  30.813  10.705  0.00  0.00    +0.000 A 
ENDROOT
TORSDOF 0
ENDMDL
