MODEL 1
REMARK VINA RESULT:    -8.289      0.000      0.000
REMARK INTER + INTRA:         -11.882
REMARK INTER:                 -11.439
REMARK INTRA:                  -0.443
REMARK UNBOUND:                -0.443
REMARK  Name = roscovitine
REMARK  10 active torsions:
REMARK  status: ('A' for Active; 'I' for Inactive)
REMARK    1  A    between atoms: C_1  and  C_2
REMARK    2  A    between atoms: C_2  and  CA_3
REMARK    3  A    between atoms: CA_3  and  C_4
REMARK    4  A    between atoms: CA_3  and  N_6
REMARK    5  A    between atoms: C_4  and  O_5
REMARK    6  A    between atoms: N_10  and  C_11
REMARK    7  A    between atoms: C_11  and  C_12
REMARK    8  A    between atoms: N_21  and  C_22
REMARK    9  A    between atoms: C_22  and  C_23
REMARK   10  A    between atoms: C_22  and  C_24
REMARK                            x       y       z     vdW  Elec       q    Type
REMARK                         _______ _______ _______ _____ _____    ______ ____
ROOT
ATOM      1  N   UNL     1      -0.330  25.695  10.330  0.00  0.00    +0.000 N 
ATOM      2  C   UNL     1       0.165  26.616   9.407  0.00  0.00    +0.000 A 
ATOM      3  N   UNL     1       1.320  26.262   8.810  0.00  0.00    +0.000 NA
ATOM      4  C   UNL     1       1.892  27.055   7.864  0.00  0.00    +0.000 A 
ATOM      5  N   UNL     1       3.090  26.621   7.301  0.00  0.00    +0.000 N 
ATOM      6  C   UNL     1       1.217  28.241   7.530  0.00  0.00    +0.000 A 
ATOM      7  N   UNL     1       1.519  29.263   6.642  0.00  0.00    +0.000 NA
ATOM      8  C   UNL     1       0.531  30.114   6.778  0.00  0.00    +0.000 A 
ATOM      9  N   UNL     1      -0.386  29.706   7.709  0.00  0.00    +0.000 N 
ATOM     10  C   UNL     1       0.038  28.499   8.203  0.00  0.00    +0.000 A 
ATOM     11  N   UNL     1      -0.544  27.728   9.138  0.00  0.00    +0.000 NA
ATOM     12  H   UNL     1      -0.714  24.945   9.768  0.00  0.00    +0.000 HD
ATOM     13  H   UNL     1       3.831  26.749   7.982  0.00  0.00    +0.000 HD
ENDROOT
BRANCH   9  14
ATOM     14  C   UNL     1      -1.573  30.458   8.088  0.00  0.00    +0.000 C 
ATOM     15  C   UNL     1      -2.851  29.628   7.973  0.00  0.00    +0.000 C 
ATOM     16  C   UNL     1      -1.442  31.086   9.474  0.00  0.00    +0.000 C 
ENDBRANCH   9  14
BRANCH   1  17
ATOM     17  CA  UNL     1      -1.244  26.184  11.370  0.00  0.00    +0.000 C 
BRANCH  17  19
ATOM     18  C   UNL     1      -3.651  27.066  11.038  0.00  0.00    +0.000 C 
ATOM     19  C   UNL     1      -2.687  25.895  10.883  0.00  0.00    +0.000 C 
ENDBRANCH  17  19
BRANCH  17  20
ATOM     20  C   UNL     1      -0.953  25.511  12.741  0.00  0.00    +0.000 C 
BRANCH  20  21
ATOM     21  O   UNL     1      -2.088  24.891  13.344  0.00  0.00    +0.000 OA
ATOM     22  H   UNL     1      -2.891  25.281  12.966  0.00  0.00    +0.000 HD
ENDBRANCH  20  21
ENDBRANCH  17  20
ENDBRANCH   1  17
BRANCH   5  23
ATOM     23  C   UNL     1       3.430  27.149   5.986  0.00  0.00    +0.000 C 
BRANCH  23  24
ATOM     24  C   UNL     1       4.092  26.047   5.187  0.00  0.00    +0.000 A 
ATOM     25  C   UNL     1       4.648  26.340   3.930  0.00  0.00    +0.000 A 
ATOM     26  C   UNL     1       5.243  25.337   3.167  0.00  0.00    +0.000 A 
ATOM     27  C   UNL     1       5.307  24.039   3.661  0.00  0.00    +0.000 A 
ATOM     28  C   UNL     1       4.786  23.742   4.920  0.00  0.00    +0.000 A 
ATOM     29  C   UNL     1       4.182  24.743   5.683  0.00  0.00    +0.000 A 
ENDBRANCH  23  24
ENDBRANCH   5  23
TORSDOF 7
ENDMDL
