MODEL 1
REMARK VINA RESULT:    -5.894      0.000      0.000
REMARK INTER + INTRA:          -5.894
REMARK INTER:                  -5.894
REMARK INTRA:                   0.000
REMARK UNBOUND:                 0.000
REMARK  Name = caffeine
REMARK  3 active torsions:
REMARK  status: ('A' for Active; 'I' for Inactive)
REMARK    1  A    between atoms: C_1  and  N_2
REMARK    2  A    between atoms: N_9  and  C_10
REMARK    3  A    between atoms: N_11  and  C_12
REMARK                            x       y       z     vdW  Elec       q    Type
REMARK                         _______ _______ _______ _____ _____    ______ ____
ROOT
ATOM      1  C   UNL     1      -1.747  25.087  10.450  0.00  0.00    +0.000 C 
ATOM      2  N   UNL     1      -1.865  26.482  10.076  0.00  0.00    +0.000 N 
ATOM      3  C   UNL     1      -0.984  26.981   9.112  0.00  0.00    +0.000 A 
ATOM      4  O   UNL     1      -0.110  26.319   8.561  0.00  0.00    +0.000 OA
ATOM      5  C   UNL     1      -1.201  28.356   8.826  0.00  0.00    +0.000 A 
ATOM      6  C   UNL     1      -2.166  29.104   9.429  0.00  0.00    +0.000 A 
ATOM      7  N   UNL     1      -2.166  30.390   8.980  0.00  0.00    +0.000 NA
ATOM      8  C   UNL     1      -1.194  30.429   8.091  0.00  0.00    +0.000 A 
ATOM      9  N   UNL     1      -0.581  29.210   7.960  0.00  0.00    +0.000 N 
ATOM     10  C   UNL     1       0.500  28.893   7.061  0.00  0.00    +0.000 C 
ATOM     11  N   UNL     1      -3.011  28.566  10.368  0.00  0.00    +0.000 N 
ATOM     12  C   UNL     1      -4.046  29.356  11.003  0.00  0.00    +0.000 C 
ATOM     13  C   UNL     1      -2.875  27.223  10.723  0.00  0.00    +0.000 A 
ATOM     14  O   UNL     1      -3.609  26.701  11.569  0.00  0.00    +0.000 OA
ENDROOT
TORSDOF 0
ENDMDL
