REMARK  Name = hexane
REMARK  5 active torsions:
REMARK  status: ('A' for Active; 'I' for Inactive)
REMARK    1  A    between atoms: C_1  and  C_2
REMARK    2  A    between atoms: C_2  and  C_3
REMARK    3  A    between atoms: C_3  and  C_4
REMARK    4  A    between atoms: C_4  and  C_5
REMARK    5  A    between atoms: C_5  and  C_6
REMARK                            x       y       z     vdW  Elec       q    Type
REMARK                         _______ _______ _______ _____ _____    ______ ____
ROOT
ATOM      1  C   UNL     1       3.061   0.796   1.069  0.00  0.00    +0.000 C 
ENDROOT
BRANCH   1   3
ATOM      2  C   UNL     1       1.007  -0.068  -0.085  0.00  0.00    +0.000 C 
ATOM      3  C   UNL     1       2.525  -0.063  -0.075  0.00  0.00    +0.000 C 
ENDBRANCH   1   3
BRANCH   1   4
ATOM      4  C   UNL     1       4.588   0.806   1.082  0.00  0.00    +0.000 C 
BRANCH   4   5
ATOM      5  C   UNL     1       5.124   1.662   2.227  0.00  0.00    +0.000 C 
ATOM      6  C   UNL     1       6.642   1.669   2.236  0.00  0.00    +0.000 C 
ENDBRANCH   4   5
ENDBRANCH   1   4
TORSDOF 3
