REMARK  Name = /workspace/projects/05_validated_docking/results/example/workdir/ligand_xtal.pdb
REMARK  5 active torsions:
REMARK  status: ('A' for Active; 'I' for Inactive)
REMARK    1  A    between atoms: C_4  and  N_34
REMARK    2  A    between atoms: C_5  and  O_32
REMARK    3  A    between atoms: C_6  and  C_7
REMARK    4  A    between atoms: O_32  and  C_33
REMARK    5  A    between atoms: N_34  and  C_35
REMARK                            x       y       z     vdW  Elec       q    Type
REMARK                         _______ _______ _______ _____ _____    ______ ____
ROOT
ATOM      1  O   UNL     1      -0.058  24.605   8.915  0.00  0.00    +0.000 OA
ATOM      2  C   UNL     1       1.330  24.642   8.620  0.00  0.00    +0.000 C 
ATOM      3  C   UNL     1       2.190  24.163   9.817  0.00  0.00    +0.000 C 
ATOM      4  C   UNL     1       1.285  23.864  11.015  0.00  0.00    +0.000 C 
ATOM      5  C   UNL     1       0.399  25.107  11.317  0.00  0.00    +0.000 C 
ATOM      6  C   UNL     1      -0.583  25.179  10.100  0.00  0.00    +0.000 C 
ATOM      7  C   UNL     1      -1.782  24.315  10.445  0.00  0.00    +0.000 C 
ATOM      8  N   UNL     1      -1.018  26.573   9.809  0.00  0.00    +0.000 N 
ATOM      9  C   UNL     1      -0.249  27.353   8.907  0.00  0.00    +0.000 A 
ATOM     10  C   UNL     1       0.860  27.101   8.206  0.00  0.00    +0.000 A 
ATOM     11  C   UNL     1       1.478  28.081   7.370  0.00  0.00    +0.000 A 
ATOM     12  C   UNL     1       0.774  29.374   7.329  0.00  0.00    +0.000 A 
ATOM     13  C   UNL     1      -0.312  29.613   8.017  0.00  0.00    +0.000 A 
ATOM     14  C   UNL     1      -0.901  28.645   8.863  0.00  0.00    +0.000 A 
ATOM     15  C   UNL     1      -2.037  28.599   9.702  0.00  0.00    +0.000 A 
ATOM     16  C   UNL     1      -2.108  27.305  10.303  0.00  0.00    +0.000 A 
ATOM     17  C   UNL     1      -3.112  27.011  11.173  0.00  0.00    +0.000 A 
ATOM     18  C   UNL     1      -4.061  27.944  11.468  0.00  0.00    +0.000 A 
ATOM     19  C   UNL     1      -4.015  29.250  10.895  0.00  0.00    +0.000 A 
ATOM     20  C   UNL     1      -2.987  29.537  10.029  0.00  0.00    +0.000 A 
ATOM     21  C   UNL     1      -0.787  31.061   7.794  0.00  0.00    +0.000 C 
ATOM     22  N   UNL     1       0.246  31.488   6.873  0.00  0.00    +0.000 NA
ATOM     23  C   UNL     1       1.191  30.590   6.560  0.00  0.00    +0.000 C 
ATOM     24  O   UNL     1       2.145  30.733   5.820  0.00  0.00    +0.000 OA
ATOM     25  C   UNL     1       2.646  27.528   6.811  0.00  0.00    +0.000 A 
ATOM     26  C   UNL     1       2.741  26.197   7.309  0.00  0.00    +0.000 A 
ATOM     27  C   UNL     1       3.755  25.317   6.923  0.00  0.00    +0.000 A 
ATOM     28  C   UNL     1       4.704  25.792   6.047  0.00  0.00    +0.000 A 
ATOM     29  C   UNL     1       4.628  27.116   5.555  0.00  0.00    +0.000 A 
ATOM     30  C   UNL     1       3.610  27.946   5.921  0.00  0.00    +0.000 A 
ATOM     31  N   UNL     1       1.709  25.971   8.152  0.00  0.00    +0.000 N 
ENDROOT
BRANCH   4  32
ATOM     32  N   UNL     1       2.190  23.510  12.249  0.00  0.00    +0.000 N 
ATOM     33  C   UNL     1       2.219  22.036  12.464  0.00  0.00    +0.000 C 
ATOM     34  H   UNL     1       1.816  23.964  13.082  0.00  0.00    +0.000 HD
ATOM     35  H   UNL     1       3.139  23.837  12.069  0.00  0.00    +0.000 HD
ENDBRANCH   4  32
BRANCH   5  36
ATOM     36  O   UNL     1       1.283  26.245  11.296  0.00  0.00    +0.000 OA
ATOM     37  C   UNL     1       0.708  27.365  11.940  0.00  0.00    +0.000 C 
ENDBRANCH   5  36
TORSDOF 2
