MODEL 1
REMARK VINA RESULT:   -12.789      0.000      0.000
REMARK INTER + INTRA:         -14.400
REMARK INTER:                 -14.284
REMARK INTRA:                  -0.115
REMARK UNBOUND:                -0.115
REMARK  Name = /workspace/projects/05_validated_docking/results/example/workdir/ligand_xtal.pdb
REMARK  5 active torsions:
REMARK  status: ('A' for Active; 'I' for Inactive)
REMARK    1  A    between atoms: C_4  and  N_34
REMARK    2  A    between atoms: C_5  and  O_32
REMARK    3  A    between atoms: C_6  and  C_7
REMARK    4  A    between atoms: O_32  and  C_33
REMARK    5  A    between atoms: N_34  and  C_35
REMARK                            x       y       z     vdW  Elec       q    Type
REMARK                         _______ _______ _______ _____ _____    ______ ____
ROOT
ATOM      1  O   UNL     1      -0.276  24.684   8.782  0.00  0.00    +0.000 OA
ATOM      2  C   UNL     1       1.110  24.739   8.479  0.00  0.00    +0.000 C 
ATOM      3  C   UNL     1       1.980  24.211   9.648  0.00  0.00    +0.000 C 
ATOM      4  C   UNL     1       1.085  23.858  10.838  0.00  0.00    +0.000 C 
ATOM      5  C   UNL     1       0.197  25.083  11.200  0.00  0.00    +0.000 C 
ATOM      6  C   UNL     1      -0.794  25.204   9.994  0.00  0.00    +0.000 C 
ATOM      7  C   UNL     1      -1.988  24.322  10.310  0.00  0.00    +0.000 C 
ATOM      8  N   UNL     1      -1.236  26.608   9.767  0.00  0.00    +0.000 N 
ATOM      9  C   UNL     1      -0.475  27.429   8.894  0.00  0.00    +0.000 A 
ATOM     10  C   UNL     1       0.629  27.212   8.175  0.00  0.00    +0.000 A 
ATOM     11  C   UNL     1       1.238  28.229   7.378  0.00  0.00    +0.000 A 
ATOM     12  C   UNL     1       0.530  29.520   7.398  0.00  0.00    +0.000 A 
ATOM     13  C   UNL     1      -0.552  29.725   8.103  0.00  0.00    +0.000 A 
ATOM     14  C   UNL     1      -1.132  28.720   8.911  0.00  0.00    +0.000 A 
ATOM     15  C   UNL     1      -2.262  28.633   9.755  0.00  0.00    +0.000 A 
ATOM     16  C   UNL     1      -2.324  27.314  10.300  0.00  0.00    +0.000 A 
ATOM     17  C   UNL     1      -3.321  26.979  11.163  0.00  0.00    +0.000 A 
ATOM     18  C   UNL     1      -4.271  27.895  11.505  0.00  0.00    +0.000 A 
ATOM     19  C   UNL     1      -4.233  29.225  10.989  0.00  0.00    +0.000 A 
ATOM     20  C   UNL     1      -3.212  29.553  10.129  0.00  0.00    +0.000 A 
ATOM     21  C   UNL     1      -1.033  31.180   7.946  0.00  0.00    +0.000 C 
ATOM     22  N   UNL     1      -0.008  31.650   7.038  0.00  0.00    +0.000 NA
ATOM     23  C   UNL     1       0.937  30.770   6.679  0.00  0.00    +0.000 C 
ATOM     24  O   UNL     1       1.886  30.948   5.940  0.00  0.00    +0.000 OA
ATOM     25  C   UNL     1       2.404  27.705   6.788  0.00  0.00    +0.000 A 
ATOM     26  C   UNL     1       2.507  26.354   7.227  0.00  0.00    +0.000 A 
ATOM     27  C   UNL     1       3.521  25.495   6.796  0.00  0.00    +0.000 A 
ATOM     28  C   UNL     1       4.462  26.011   5.935  0.00  0.00    +0.000 A 
ATOM     29  C   UNL     1       4.378  27.354   5.501  0.00  0.00    +0.000 A 
ATOM     30  C   UNL     1       3.360  28.164   5.910  0.00  0.00    +0.000 A 
ATOM     31  N   UNL     1       1.481  26.088   8.066  0.00  0.00    +0.000 N 
ENDROOT
BRANCH   4  32
ATOM     32  N   UNL     1       1.999  23.454  12.049  0.00  0.00    +0.000 N 
ATOM     33  C   UNL     1       1.425  22.279  12.763  0.00  0.00    +0.000 C 
ATOM     34  H   UNL     1       2.068  24.239  12.696  0.00  0.00    +0.000 HD
ATOM     35  H   UNL     1       2.925  23.208  11.699  0.00  0.00    +0.000 HD
ENDBRANCH   4  32
BRANCH   5  36
ATOM     36  O   UNL     1       1.077  26.224  11.222  0.00  0.00    +0.000 OA
ATOM     37  C   UNL     1       0.729  27.133  12.248  0.00  0.00    +0.000 C 
ENDBRANCH   5  36
TORSDOF 2
ENDMDL
MODEL 2
REMARK VINA RESULT:   -12.418      1.913      3.335
REMARK INTER + INTRA:         -13.985
REMARK INTER:                 -13.733
REMARK INTRA:                  -0.252
REMARK UNBOUND:                -0.115
REMARK  Name = /workspace/projects/05_validated_docking/results/example/workdir/ligand_xtal.pdb
REMARK  5 active torsions:
REMARK  status: ('A' for Active; 'I' for Inactive)
REMARK    1  A    between atoms: C_4  and  N_34
REMARK    2  A    between atoms: C_5  and  O_32
REMARK    3  A    between atoms: C_6  and  C_7
REMARK    4  A    between atoms: O_32  and  C_33
REMARK    5  A    between atoms: N_34  and  C_35
REMARK                            x       y       z     vdW  Elec       q    Type
REMARK                         _______ _______ _______ _____ _____    ______ ____
ROOT
ATOM      1  O   UNL     1      -1.202  24.715   9.864  0.00  0.00    +0.000 OA
ATOM      2  C   UNL     1      -0.074  23.922  10.201  0.00  0.00    +0.000 C 
ATOM      3  C   UNL     1       0.137  23.834  11.733  0.00  0.00    +0.000 C 
ATOM      4  C   UNL     1      -0.898  24.708  12.447  0.00  0.00    +0.000 C 
ATOM      5  C   UNL     1      -0.839  26.153  11.872  0.00  0.00    +0.000 C 
ATOM      6  C   UNL     1      -1.396  26.006  10.417  0.00  0.00    +0.000 C 
ATOM      7  C   UNL     1      -2.903  26.164  10.499  0.00  0.00    +0.000 C 
ATOM      8  N   UNL     1      -0.821  27.019   9.489  0.00  0.00    +0.000 N 
ATOM      9  C   UNL     1       0.373  26.704   8.790  0.00  0.00    +0.000 A 
ATOM     10  C   UNL     1       1.157  25.622   8.774  0.00  0.00    +0.000 A 
ATOM     11  C   UNL     1       2.351  25.552   7.993  0.00  0.00    +0.000 A 
ATOM     12  C   UNL     1       2.625  26.759   7.194  0.00  0.00    +0.000 A 
ATOM     13  C   UNL     1       1.852  27.813   7.214  0.00  0.00    +0.000 A 
ATOM     14  C   UNL     1       0.686  27.883   8.011  0.00  0.00    +0.000 A 
ATOM     15  C   UNL     1      -0.323  28.846   8.237  0.00  0.00    +0.000 A 
ATOM     16  C   UNL     1      -1.263  28.311   9.170  0.00  0.00    +0.000 A 
ATOM     17  C   UNL     1      -2.330  29.057   9.567  0.00  0.00    +0.000 A 
ATOM     18  C   UNL     1      -2.513  30.314   9.071  0.00  0.00    +0.000 A 
ATOM     19  C   UNL     1      -1.587  30.884   8.146  0.00  0.00    +0.000 A 
ATOM     20  C   UNL     1      -0.507  30.124   7.765  0.00  0.00    +0.000 A 
ATOM     21  C   UNL     1       2.422  28.920   6.306  0.00  0.00    +0.000 C 
ATOM     22  N   UNL     1       3.600  28.224   5.832  0.00  0.00    +0.000 NA
ATOM     23  C   UNL     1       3.804  26.984   6.299  0.00  0.00    +0.000 C 
ATOM     24  O   UNL     1       4.721  26.228   6.042  0.00  0.00    +0.000 OA
ATOM     25  C   UNL     1       2.974  24.311   8.228  0.00  0.00    +0.000 A 
ATOM     26  C   UNL     1       2.151  23.616   9.159  0.00  0.00    +0.000 A 
ATOM     27  C   UNL     1       2.429  22.316   9.589  0.00  0.00    +0.000 A 
ATOM     28  C   UNL     1       3.567  21.718   9.098  0.00  0.00    +0.000 A 
ATOM     29  C   UNL     1       4.400  22.403   8.183  0.00  0.00    +0.000 A 
ATOM     30  C   UNL     1       4.090  23.659   7.753  0.00  0.00    +0.000 A 
ATOM     31  N   UNL     1       1.109  24.408   9.498  0.00  0.00    +0.000 N 
ENDROOT
BRANCH   4  32
ATOM     32  N   UNL     1      -0.579  24.705  13.985  0.00  0.00    +0.000 N 
ATOM     33  C   UNL     1      -0.626  23.316  14.521  0.00  0.00    +0.000 C 
ATOM     34  H   UNL     1      -1.268  25.277  14.473  0.00  0.00    +0.000 HD
ATOM     35  H   UNL     1       0.356  25.085  14.131  0.00  0.00    +0.000 HD
ENDBRANCH   4  32
BRANCH   5  36
ATOM     36  O   UNL     1       0.556  26.510  11.825  0.00  0.00    +0.000 OA
ATOM     37  C   UNL     1       0.774  27.827  12.292  0.00  0.00    +0.000 C 
ENDBRANCH   5  36
TORSDOF 2
ENDMDL
MODEL 3
REMARK VINA RESULT:   -10.863      1.983      5.598
REMARK INTER + INTRA:         -12.248
REMARK INTER:                 -12.087
REMARK INTRA:                  -0.161
REMARK UNBOUND:                -0.115
REMARK  Name = /workspace/projects/05_validated_docking/results/example/workdir/ligand_xtal.pdb
REMARK  5 active torsions:
REMARK  status: ('A' for Active; 'I' for Inactive)
REMARK    1  A    between atoms: C_4  and  N_34
REMARK    2  A    between atoms: C_5  and  O_32
REMARK    3  A    between atoms: C_6  and  C_7
REMARK    4  A    between atoms: O_32  and  C_33
REMARK    5  A    between atoms: N_34  and  C_35
REMARK                            x       y       z     vdW  Elec       q    Type
REMARK                         _______ _______ _______ _____ _____    ______ ____
ROOT
ATOM      1  O   UNL     1       0.268  27.520  11.231  0.00  0.00    +0.000 OA
ATOM      2  C   UNL     1       0.116  28.172   9.980  0.00  0.00    +0.000 C 
ATOM      3  C   UNL     1      -1.374  28.328   9.584  0.00  0.00    +0.000 C 
ATOM      4  C   UNL     1      -2.260  27.650  10.632  0.00  0.00    +0.000 C 
ATOM      5  C   UNL     1      -1.797  26.177  10.825  0.00  0.00    +0.000 C 
ATOM      6  C   UNL     1      -0.401  26.305  11.523  0.00  0.00    +0.000 C 
ATOM      7  C   UNL     1      -0.656  26.357  13.018  0.00  0.00    +0.000 C 
ATOM      8  N   UNL     1       0.500  25.166  11.193  0.00  0.00    +0.000 N 
ATOM      9  C   UNL     1       1.344  25.272  10.057  0.00  0.00    +0.000 A 
ATOM     10  C   UNL     1       1.528  26.235   9.149  0.00  0.00    +0.000 A 
ATOM     11  C   UNL     1       2.434  26.092   8.054  0.00  0.00    +0.000 A 
ATOM     12  C   UNL     1       3.161  24.811   8.030  0.00  0.00    +0.000 A 
ATOM     13  C   UNL     1       2.977  23.874   8.924  0.00  0.00    +0.000 A 
ATOM     14  C   UNL     1       2.058  24.014   9.989  0.00  0.00    +0.000 A 
ATOM     15  C   UNL     1       1.651  23.213  11.080  0.00  0.00    +0.000 A 
ATOM     16  C   UNL     1       0.669  23.928  11.831  0.00  0.00    +0.000 A 
ATOM     17  C   UNL     1       0.104  23.360  12.930  0.00  0.00    +0.000 A 
ATOM     18  C   UNL     1       0.478  22.111  13.328  0.00  0.00    +0.000 A 
ATOM     19  C   UNL     1       1.448  21.363  12.596  0.00  0.00    +0.000 A 
ATOM     20  C   UNL     1       2.000  21.944  11.479  0.00  0.00    +0.000 A 
ATOM     21  C   UNL     1       3.851  22.646   8.609  0.00  0.00    +0.000 C 
ATOM     22  N   UNL     1       4.501  23.144   7.414  0.00  0.00    +0.000 NA
ATOM     23  C   UNL     1       4.156  24.372   7.001  0.00  0.00    +0.000 C 
ATOM     24  O   UNL     1       4.567  24.979   6.031  0.00  0.00    +0.000 OA
ATOM     25  C   UNL     1       2.365  27.249   7.255  0.00  0.00    +0.000 A 
ATOM     26  C   UNL     1       1.408  28.108   7.869  0.00  0.00    +0.000 A 
ATOM     27  C   UNL     1       1.114  29.383   7.380  0.00  0.00    +0.000 A 
ATOM     28  C   UNL     1       1.768  29.788   6.240  0.00  0.00    +0.000 A 
ATOM     29  C   UNL     1       2.710  28.940   5.613  0.00  0.00    +0.000 A 
ATOM     30  C   UNL     1       3.005  27.713   6.127  0.00  0.00    +0.000 A 
ATOM     31  N   UNL     1       0.900  27.488   8.958  0.00  0.00    +0.000 N 
ENDROOT
BRANCH   4  32
ATOM     32  N   UNL     1      -3.750  27.707  10.140  0.00  0.00    +0.000 N 
ATOM     33  C   UNL     1      -3.975  28.923   9.310  0.00  0.00    +0.000 C 
ATOM     34  H   UNL     1      -4.371  27.732  10.949  0.00  0.00    +0.000 HD
ATOM     35  H   UNL     1      -3.945  26.880   9.575  0.00  0.00    +0.000 HD
ENDBRANCH   4  32
BRANCH   5  36
ATOM     36  O   UNL     1      -1.630  25.631   9.501  0.00  0.00    +0.000 OA
ATOM     37  C   UNL     1      -2.044  24.281   9.437  0.00  0.00    +0.000 C 
ENDBRANCH   5  36
TORSDOF 2
ENDMDL
MODEL 4
REMARK VINA RESULT:   -10.068      1.962      5.782
REMARK INTER + INTRA:         -11.360
REMARK INTER:                 -11.300
REMARK INTRA:                  -0.060
REMARK UNBOUND:                -0.115
REMARK  Name = /workspace/projects/05_validated_docking/results/example/workdir/ligand_xtal.pdb
REMARK  5 active torsions:
REMARK  status: ('A' for Active; 'I' for Inactive)
REMARK    1  A    between atoms: C_4  and  N_34
REMARK    2  A    between atoms: C_5  and  O_32
REMARK    3  A    between atoms: C_6  and  C_7
REMARK    4  A    between atoms: O_32  and  C_33
REMARK    5  A    between atoms: N_34  and  C_35
REMARK                            x       y       z     vdW  Elec       q    Type
REMARK                         _______ _______ _______ _____ _____    ______ ____
ROOT
ATOM      1  O   UNL     1       0.768  27.407  10.742  0.00  0.00    +0.000 OA
ATOM      2  C   UNL     1       0.887  27.760   9.373  0.00  0.00    +0.000 C 
ATOM      3  C   UNL     1      -0.482  28.136   8.750  0.00  0.00    +0.000 C 
ATOM      4  C   UNL     1      -1.592  27.935   9.785  0.00  0.00    +0.000 C 
ATOM      5  C   UNL     1      -1.518  26.486  10.347  0.00  0.00    +0.000 C 
ATOM      6  C   UNL     1      -0.198  26.471  11.189  0.00  0.00    +0.000 C 
ATOM      7  C   UNL     1      -0.559  26.932  12.589  0.00  0.00    +0.000 C 
ATOM      8  N   UNL     1       0.425  25.120  11.235  0.00  0.00    +0.000 N 
ATOM      9  C   UNL     1       1.364  24.767  10.231  0.00  0.00    +0.000 A 
ATOM     10  C   UNL     1       1.853  25.422   9.175  0.00  0.00    +0.000 A 
ATOM     11  C   UNL     1       2.787  24.830   8.271  0.00  0.00    +0.000 A 
ATOM     12  C   UNL     1       3.181  23.455   8.620  0.00  0.00    +0.000 A 
ATOM     13  C   UNL     1       2.699  22.820   9.657  0.00  0.00    +0.000 A 
ATOM     14  C   UNL     1       1.754  23.405  10.531  0.00  0.00    +0.000 A 
ATOM     15  C   UNL     1       1.073  22.994  11.699  0.00  0.00    +0.000 A 
ATOM     16  C   UNL     1       0.234  24.063  12.138  0.00  0.00    +0.000 A 
ATOM     17  C   UNL     1      -0.544  23.909  13.243  0.00  0.00    +0.000 A 
ATOM     18  C   UNL     1      -0.520  22.740  13.944  0.00  0.00    +0.000 A 
ATOM     19  C   UNL     1       0.299  21.648  13.528  0.00  0.00    +0.000 A 
ATOM     20  C   UNL     1       1.068  21.812  12.402  0.00  0.00    +0.000 A 
ATOM     21  C   UNL     1       3.273  21.393   9.733  0.00  0.00    +0.000 C 
ATOM     22  N   UNL     1       4.124  21.439   8.562  0.00  0.00    +0.000 NA
ATOM     23  C   UNL     1       4.124  22.578   7.855  0.00  0.00    +0.000 C 
ATOM     24  O   UNL     1       4.752  22.833   6.845  0.00  0.00    +0.000 OA
ATOM     25  C   UNL     1       3.069  25.751   7.243  0.00  0.00    +0.000 A 
ATOM     26  C   UNL     1       2.300  26.917   7.524  0.00  0.00    +0.000 A 
ATOM     27  C   UNL     1       2.366  28.071   6.740  0.00  0.00    +0.000 A 
ATOM     28  C   UNL     1       3.194  28.043   5.642  0.00  0.00    +0.000 A 
ATOM     29  C   UNL     1       3.953  26.886   5.345  0.00  0.00    +0.000 A 
ATOM     30  C   UNL     1       3.897  25.783   6.143  0.00  0.00    +0.000 A 
ATOM     31  N   UNL     1       1.566  26.699   8.637  0.00  0.00    +0.000 N 
ENDROOT
BRANCH   4  32
ATOM     32  N   UNL     1      -2.976  28.194   9.090  0.00  0.00    +0.000 N 
ATOM     33  C   UNL     1      -3.923  28.835  10.046  0.00  0.00    +0.000 C 
ATOM     34  H   UNL     1      -3.366  27.307   8.775  0.00  0.00    +0.000 HD
ATOM     35  H   UNL     1      -2.836  28.817   8.295  0.00  0.00    +0.000 HD
ENDBRANCH   4  32
BRANCH   5  36
ATOM     36  O   UNL     1      -1.376  25.618   9.205  0.00  0.00    +0.000 OA
ATOM     37  C   UNL     1      -2.047  24.389   9.396  0.00  0.00    +0.000 C 
ENDBRANCH   5  36
TORSDOF 2
ENDMDL
MODEL 5
REMARK VINA RESULT:    -8.912      3.815      7.633
REMARK INTER + INTRA:         -10.070
REMARK INTER:                  -9.673
REMARK INTRA:                  -0.397
REMARK UNBOUND:                -0.115
REMARK  Name = /workspace/projects/05_validated_docking/results/example/workdir/ligand_xtal.pdb
REMARK  5 active torsions:
REMARK  status: ('A' for Active; 'I' for Inactive)
REMARK    1  A    between atoms: C_4  and  N_34
REMARK    2  A    between atoms: C_5  and  O_32
REMARK    3  A    between atoms: C_6  and  C_7
REMARK    4  A    between atoms: O_32  and  C_33
REMARK    5  A    between atoms: N_34  and  C_35
REMARK                            x       y       z     vdW  Elec       q    Type
REMARK                         _______ _______ _______ _____ _____    ______ ____
ROOT
ATOM      1  O   UNL     1       2.426  22.127  11.276  0.00  0.00    +0.000 OA
ATOM      2  C   UNL     1       1.304  22.775  10.698  0.00  0.00    +0.000 C 
ATOM      3  C   UNL     1       0.133  21.792  10.446  0.00  0.00    +0.000 C 
ATOM      4  C   UNL     1       0.562  20.371  10.823  0.00  0.00    +0.000 C 
ATOM      5  C   UNL     1       1.876  20.011  10.071  0.00  0.00    +0.000 C 
ATOM      6  C   UNL     1       2.957  20.930  10.733  0.00  0.00    +0.000 C 
ATOM      7  C   UNL     1       3.506  20.177  11.931  0.00  0.00    +0.000 C 
ATOM      8  N   UNL     1       4.057  21.274   9.791  0.00  0.00    +0.000 N 
ATOM      9  C   UNL     1       3.929  22.437   8.989  0.00  0.00    +0.000 A 
ATOM     10  C   UNL     1       2.973  23.364   8.880  0.00  0.00    +0.000 A 
ATOM     11  C   UNL     1       3.061  24.451   7.956  0.00  0.00    +0.000 A 
ATOM     12  C   UNL     1       4.300  24.473   7.161  0.00  0.00    +0.000 A 
ATOM     13  C   UNL     1       5.232  23.563   7.275  0.00  0.00    +0.000 A 
ATOM     14  C   UNL     1       5.124  22.476   8.172  0.00  0.00    +0.000 A 
ATOM     15  C   UNL     1       5.935  21.371   8.518  0.00  0.00    +0.000 A 
ATOM     16  C   UNL     1       5.265  20.612   9.526  0.00  0.00    +0.000 A 
ATOM     17  C   UNL     1       5.837  19.480  10.020  0.00  0.00    +0.000 A 
ATOM     18  C   UNL     1       7.055  19.071   9.566  0.00  0.00    +0.000 A 
ATOM     19  C   UNL     1       7.747  19.799   8.552  0.00  0.00    +0.000 A 
ATOM     20  C   UNL     1       7.151  20.932   8.053  0.00  0.00    +0.000 A 
ATOM     21  C   UNL     1       6.382  23.839   6.287  0.00  0.00    +0.000 C 
ATOM     22  N   UNL     1       5.858  25.043   5.677  0.00  0.00    +0.000 NA
ATOM     23  C   UNL     1       4.664  25.473   6.107  0.00  0.00    +0.000 C 
ATOM     24  O   UNL     1       4.040  26.448   5.735  0.00  0.00    +0.000 OA
ATOM     25  C   UNL     1       1.884  25.219   8.047  0.00  0.00    +0.000 A 
ATOM     26  C   UNL     1       1.071  24.596   9.037  0.00  0.00    +0.000 A 
ATOM     27  C   UNL     1      -0.162  25.116   9.438  0.00  0.00    +0.000 A 
ATOM     28  C   UNL     1      -0.597  26.262   8.814  0.00  0.00    +0.000 A 
ATOM     29  C   UNL     1       0.195  26.883   7.820  0.00  0.00    +0.000 A 
ATOM     30  C   UNL     1       1.410  26.375   7.468  0.00  0.00    +0.000 A 
ATOM     31  N   UNL     1       1.704  23.492   9.492  0.00  0.00    +0.000 N 
ENDROOT
BRANCH   4  32
ATOM     32  N   UNL     1      -0.593  19.380  10.435  0.00  0.00    +0.000 N 
ATOM     33  C   UNL     1      -0.139  17.970  10.591  0.00  0.00    +0.000 C 
ATOM     34  H   UNL     1      -0.863  19.542   9.465  0.00  0.00    +0.000 HD
ATOM     35  H   UNL     1      -1.390  19.542  11.051  0.00  0.00    +0.000 HD
ENDBRANCH   4  32
BRANCH   5  36
ATOM     36  O   UNL     1       1.676  20.407   8.700  0.00  0.00    +0.000 OA
ATOM     37  C   UNL     1       1.967  19.353   7.804  0.00  0.00    +0.000 C 
ENDBRANCH   5  36
TORSDOF 2
ENDMDL
