REMARK  Name = roscovitine
REMARK  10 active torsions:
REMARK  status: ('A' for Active; 'I' for Inactive)
REMARK    1  A    between atoms: C_1  and  C_2
REMARK    2  A    between atoms: C_2  and  CA_3
REMARK    3  A    between atoms: CA_3  and  C_4
REMARK    4  A    between atoms: CA_3  and  N_6
REMARK    5  A    between atoms: C_4  and  O_5
REMARK    6  A    between atoms: N_10  and  C_11
REMARK    7  A    between atoms: C_11  and  C_12
REMARK    8  A    between atoms: N_21  and  C_22
REMARK    9  A    between atoms: C_22  and  C_23
REMARK   10  A    between atoms: C_22  and  C_24
REMARK                            x       y       z     vdW  Elec       q    Type
REMARK                         _______ _______ _______ _____ _____    ______ ____
ROOT
ATOM      1  N   UNL     1       4.574   1.556   0.586  0.00  0.00    +0.000 N 
ATOM      2  C   UNL     1       5.269   2.726   0.895  0.00  0.00    +0.000 A 
ATOM      3  N   UNL     1       4.859   3.355   2.014  0.00  0.00    +0.000 NA
ATOM      4  C   UNL     1       5.476   4.487   2.447  0.00  0.00    +0.000 A 
ATOM      5  N   UNL     1       4.986   5.082   3.608  0.00  0.00    +0.000 N 
ATOM      6  C   UNL     1       6.563   4.955   1.689  0.00  0.00    +0.000 A 
ATOM      7  N   UNL     1       7.388   6.060   1.831  0.00  0.00    +0.000 NA
ATOM      8  C   UNL     1       8.207   5.987   0.810  0.00  0.00    +0.000 A 
ATOM      9  N   UNL     1       7.953   4.905   0.012  0.00  0.00    +0.000 N 
ATOM     10  C   UNL     1       6.898   4.225   0.564  0.00  0.00    +0.000 A 
ATOM     11  N   UNL     1       6.303   3.104   0.120  0.00  0.00    +0.000 NA
ATOM     12  H   UNL     1       4.920   0.867   1.242  0.00  0.00    +0.000 HD
ATOM     13  H   UNL     1       4.107   5.539   3.390  0.00  0.00    +0.000 HD
ENDROOT
BRANCH   9  14
ATOM     14  C   UNL     1       8.685   4.582  -1.204  0.00  0.00    +0.000 C 
ATOM     15  C   UNL     1       9.421   3.246  -1.105  0.00  0.00    +0.000 C 
ATOM     16  C   UNL     1       7.797   4.636  -2.446  0.00  0.00    +0.000 C 
ENDBRANCH   9  14
BRANCH   1  17
ATOM     17  CA  UNL     1       4.578   1.101  -0.810  0.00  0.00    +0.000 C 
BRANCH  17  19
ATOM     18  C   UNL     1       3.749  -0.889  -2.235  0.00  0.00    +0.000 C 
ATOM     19  C   UNL     1       3.816  -0.248  -0.853  0.00  0.00    +0.000 C 
ENDBRANCH  17  19
BRANCH  17  20
ATOM     20  C   UNL     1       3.932   2.158  -1.750  0.00  0.00    +0.000 C 
BRANCH  20  21
ATOM     21  O   UNL     1       2.571   2.462  -1.445  0.00  0.00    +0.000 OA
ATOM     22  H   UNL     1       2.070   1.633  -1.408  0.00  0.00    +0.000 HD
ENDBRANCH  20  21
ENDBRANCH  17  20
ENDBRANCH   1  17
BRANCH   5  23
ATOM     23  C   UNL     1       5.904   5.938   4.348  0.00  0.00    +0.000 C 
BRANCH  23  24
ATOM     24  C   UNL     1       5.402   6.058   5.770  0.00  0.00    +0.000 A 
ATOM     25  C   UNL     1       5.175   4.895   6.526  0.00  0.00    +0.000 A 
ATOM     26  C   UNL     1       4.692   4.981   7.831  0.00  0.00    +0.000 A 
ATOM     27  C   UNL     1       4.451   6.227   8.398  0.00  0.00    +0.000 A 
ATOM     28  C   UNL     1       4.702   7.389   7.669  0.00  0.00    +0.000 A 
ATOM     29  C   UNL     1       5.178   7.306   6.359  0.00  0.00    +0.000 A 
ENDBRANCH  23  24
ENDBRANCH   5  23
TORSDOF 7
